<?xml version="1.0" encoding="UTF-8"?>

<!-- generated on 2023-06-19 16:02:31 by Eclipse SUMO sumo Version 1.17.0
<configuration xmlns:xsi="http://www.w3.org/2001/XMLSchema-instance" xsi:noNamespaceSchemaLocation="http://sumo.dlr.de/xsd/sumoConfiguration.xsd">

    <input>
        <net-file value="simulationData/cross.net.xml"/>
        <route-files value="simulationData/cross.rou.xml"/>
    </input>

    <output>
        <tripinfo-output value="tripinfo.xml"/>
        <collision-output value="collisions.txt"/>
    </output>

    <time>
        <begin value="0"/>
        <step-length value="0.1"/>
    </time>

    <processing>
        <collision.action value="remove"/>
        <collision.check-junctions value="true"/>
    </processing>

    <report>
        <verbose value="true"/>
        <no-step-log value="true"/>
    </report>

    <traci_server>
        <remote-port value="56497"/>
    </traci_server>

</configuration>
-->

<tripinfos xmlns:xsi="http://www.w3.org/2001/XMLSchema-instance" xsi:noNamespaceSchemaLocation="http://sumo.dlr.de/xsd/tripinfo_file.xsd">
    <tripinfo id="car_straight_0" depart="34.00" departLane="52o_0" departPos="5.10" departSpeed="0.00" departDelay="0.00" arrival="59.00" arrivalLane="53i_0" arrivalPos="10.00" arrivalSpeed="11.71" duration="25.00" routeLength="214.89" waitingTime="0.00" waitingCount="0" stopTime="0.00" timeLoss="5.82" rerouteNo="0" devices="tripinfo_car_straight_0" vType="type_car" speedFactor="0.94" vaporized=""/>
    <tripinfo id="bike_left_0" depart="2.00" departLane="51o_0" departPos="1.70" departSpeed="0.00" departDelay="0.00" arrival="92.40" arrivalLane="53i_0" arrivalPos="10.00" arrivalSpeed="2.55" duration="90.40" routeLength="223.13" waitingTime="0.00" waitingCount="0" stopTime="0.00" timeLoss="3.23" rerouteNo="0" devices="tripinfo_bike_left_0" vType="type_bike" speedFactor="1.06" vaporized=""/>
    <tripinfo id="car_straight_1" depart="73.00" departLane="54o_0" departPos="5.10" departSpeed="0.00" departDelay="0.00" arrival="97.00" arrivalLane="53i_0" arrivalPos="10.00" arrivalSpeed="11.86" duration="24.00" routeLength="215.10" waitingTime="0.00" waitingCount="0" stopTime="0.00" timeLoss="6.04" rerouteNo="0" devices="tripinfo_car_straight_1" vType="type_car" speedFactor="1.08" vaporized=""/>
    <tripinfo id="bike_right_1" depart="41.00" departLane="51o_0" departPos="1.70" departSpeed="0.00" departDelay="0.00" arrival="133.60" arrivalLane="54i_0" arrivalPos="10.00" arrivalSpeed="2.54" duration="92.60" routeLength="228.29" waitingTime="0.00" waitingCount="0" stopTime="0.00" timeLoss="3.41" rerouteNo="0" devices="tripinfo_bike_right_1" vType="type_bike" speedFactor="1.01" vaporized=""/>
    <tripinfo id="car_straight_2" depart="113.00" departLane="53o_0" departPos="5.10" departSpeed="0.00" departDelay="0.00" arrival="139.20" arrivalLane="54i_0" arrivalPos="10.00" arrivalSpeed="10.51" duration="26.20" routeLength="215.10" waitingTime="0.00" waitingCount="0" stopTime="0.00" timeLoss="5.83" rerouteNo="0" devices="tripinfo_car_straight_2" vType="type_car" speedFactor="0.83" vaporized=""/>
    <tripinfo id="bike_straight_3" depart="120.00" departLane="51o_0" departPos="1.70" departSpeed="0.00" departDelay="0.00" arrival="168.40" arrivalLane=":0_10_0" arrivalPos="7.29" arrivalSpeed="2.49" duration="48.40" routeLength="118.49" waitingTime="0.00" waitingCount="0" stopTime="0.00" timeLoss="2.11" rerouteNo="0" devices="tripinfo_bike_straight_3" vType="type_bike" speedFactor="1.05" vaporized="collision"/>
    <tripinfo id="car_straight_3" depart="154.00" departLane="54o_0" departPos="5.10" departSpeed="0.00" departDelay="0.00" arrival="168.40" arrivalLane=":0_1_0" arrivalPos="8.15" arrivalSpeed="8.66" duration="14.40" routeLength="105.95" waitingTime="0.00" waitingCount="0" stopTime="0.00" timeLoss="5.48" rerouteNo="0" devices="tripinfo_car_straight_3" vType="type_car" speedFactor="0.89" vaporized="collision"/>
    <tripinfo id="bike_straight_2" depart="80.00" departLane="51o_0" departPos="1.70" departSpeed="0.00" departDelay="0.00" arrival="172.30" arrivalLane="52i_0" arrivalPos="10.00" arrivalSpeed="2.56" duration="92.30" routeLength="228.50" waitingTime="0.00" waitingCount="0" stopTime="0.00" timeLoss="3.04" rerouteNo="0" devices="tripinfo_bike_straight_2" vType="type_bike" speedFactor="1.03" vaporized=""/>
    <tripinfo id="car_straight_4" depart="192.00" departLane="53o_0" departPos="5.10" departSpeed="0.00" departDelay="0.00" arrival="219.20" arrivalLane="51i_0" arrivalPos="10.00" arrivalSpeed="10.69" duration="27.20" routeLength="224.89" waitingTime="0.00" waitingCount="0" stopTime="0.00" timeLoss="6.06" rerouteNo="0" devices="tripinfo_car_straight_4" vType="type_car" speedFactor="0.86" vaporized=""/>
    <tripinfo id="bike_straight_4" depart="161.00" departLane="51o_0" departPos="1.70" departSpeed="0.00" departDelay="0.00" arrival="253.40" arrivalLane="52i_0" arrivalPos="10.00" arrivalSpeed="2.50" duration="92.40" routeLength="228.50" waitingTime="0.00" waitingCount="0" stopTime="0.00" timeLoss="3.12" rerouteNo="0" devices="tripinfo_bike_straight_4" vType="type_bike" speedFactor="0.94" vaporized=""/>
    <tripinfo id="car_straight_5" depart="232.00" departLane="54o_0" departPos="5.10" departSpeed="0.00" departDelay="0.00" arrival="256.50" arrivalLane="51i_0" arrivalPos="10.00" arrivalSpeed="11.92" duration="24.50" routeLength="219.73" waitingTime="0.00" waitingCount="0" stopTime="0.00" timeLoss="5.69" rerouteNo="0" devices="tripinfo_car_straight_5" vType="type_car" speedFactor="1.03" vaporized=""/>
    <tripinfo id="bike_right_5" depart="201.00" departLane="51o_0" departPos="1.70" departSpeed="0.00" departDelay="0.00" arrival="293.20" arrivalLane="54i_0" arrivalPos="10.00" arrivalSpeed="2.50" duration="92.20" routeLength="228.29" waitingTime="0.00" waitingCount="0" stopTime="0.00" timeLoss="3.04" rerouteNo="0" devices="tripinfo_bike_right_5" vType="type_bike" speedFactor="1.09" vaporized=""/>
    <tripinfo id="car_straight_6" depart="272.00" departLane="53o_0" departPos="5.10" departSpeed="0.00" departDelay="0.00" arrival="296.00" arrivalLane="54i_0" arrivalPos="10.00" arrivalSpeed="11.96" duration="24.00" routeLength="215.10" waitingTime="0.00" waitingCount="0" stopTime="0.00" timeLoss="6.03" rerouteNo="0" devices="tripinfo_car_straight_6" vType="type_car" speedFactor="1.12" vaporized=""/>
    <tripinfo id="bike_straight_6" depart="240.00" departLane="51o_0" departPos="1.70" departSpeed="0.00" departDelay="0.00" arrival="332.50" arrivalLane="52i_0" arrivalPos="10.00" arrivalSpeed="2.55" duration="92.50" routeLength="228.50" waitingTime="0.00" waitingCount="0" stopTime="0.00" timeLoss="3.27" rerouteNo="0" devices="tripinfo_bike_straight_6" vType="type_bike" speedFactor="1.05" vaporized=""/>
    <tripinfo id="car_straight_7" depart="312.00" departLane="52o_0" departPos="5.10" departSpeed="0.00" departDelay="0.00" arrival="336.50" arrivalLane="54i_0" arrivalPos="10.00" arrivalSpeed="11.14" duration="24.50" routeLength="209.73" waitingTime="0.00" waitingCount="0" stopTime="0.00" timeLoss="5.70" rerouteNo="0" devices="tripinfo_car_straight_7" vType="type_car" speedFactor="0.93" vaporized=""/>
    <tripinfo id="bike_left_7" depart="280.00" departLane="51o_0" departPos="1.70" departSpeed="0.00" departDelay="0.00" arrival="370.20" arrivalLane="53i_0" arrivalPos="10.00" arrivalSpeed="2.49" duration="90.20" routeLength="223.13" waitingTime="0.00" waitingCount="0" stopTime="0.00" timeLoss="3.01" rerouteNo="0" devices="tripinfo_bike_left_7" vType="type_bike" speedFactor="0.99" vaporized=""/>
    <tripinfo id="car_straight_8" depart="352.00" departLane="54o_0" departPos="5.10" departSpeed="0.00" departDelay="0.00" arrival="377.00" arrivalLane="52i_0" arrivalPos="10.00" arrivalSpeed="11.32" duration="25.00" routeLength="214.89" waitingTime="0.00" waitingCount="0" stopTime="0.00" timeLoss="5.85" rerouteNo="0" devices="tripinfo_car_straight_8" vType="type_car" speedFactor="0.94" vaporized=""/>
    <tripinfo id="bike_left_8" depart="320.00" departLane="51o_0" departPos="1.70" departSpeed="0.00" departDelay="0.00" arrival="410.30" arrivalLane="53i_0" arrivalPos="10.00" arrivalSpeed="2.49" duration="90.30" routeLength="223.13" waitingTime="0.00" waitingCount="0" stopTime="0.00" timeLoss="3.10" rerouteNo="0" devices="tripinfo_bike_left_8" vType="type_bike" speedFactor="0.88" vaporized=""/>
    <tripinfo id="car_straight_9" depart="393.00" departLane="53o_0" departPos="5.10" departSpeed="0.00" departDelay="0.00" arrival="417.70" arrivalLane="51i_0" arrivalPos="10.00" arrivalSpeed="11.96" duration="24.70" routeLength="224.89" waitingTime="0.00" waitingCount="0" stopTime="0.00" timeLoss="5.88" rerouteNo="0" devices="tripinfo_car_straight_9" vType="type_car" speedFactor="1.16" vaporized=""/>
    <tripinfo id="bike_left_9" depart="361.00" departLane="51o_0" departPos="1.70" departSpeed="0.00" departDelay="0.00" arrival="451.20" arrivalLane="53i_0" arrivalPos="10.00" arrivalSpeed="2.53" duration="90.20" routeLength="223.13" waitingTime="0.00" waitingCount="0" stopTime="0.00" timeLoss="2.99" rerouteNo="0" devices="tripinfo_bike_left_9" vType="type_bike" speedFactor="0.94" vaporized=""/>
    <tripinfo id="car_straight_10" depart="433.00" departLane="54o_0" departPos="5.10" departSpeed="0.00" departDelay="0.00" arrival="457.30" arrivalLane="53i_0" arrivalPos="10.00" arrivalSpeed="11.94" duration="24.30" routeLength="215.10" waitingTime="0.00" waitingCount="0" stopTime="0.00" timeLoss="5.75" rerouteNo="0" devices="tripinfo_car_straight_10" vType="type_car" speedFactor="1.01" vaporized=""/>
    <tripinfo id="bike_straight_10" depart="401.00" departLane="51o_0" departPos="1.70" departSpeed="0.00" departDelay="0.00" arrival="493.50" arrivalLane="52i_0" arrivalPos="10.00" arrivalSpeed="2.52" duration="92.50" routeLength="228.50" waitingTime="0.00" waitingCount="0" stopTime="0.00" timeLoss="3.23" rerouteNo="0" devices="tripinfo_bike_straight_10" vType="type_bike" speedFactor="1.02" vaporized=""/>
    <tripinfo id="car_straight_11" depart="473.00" departLane="54o_0" departPos="5.10" departSpeed="0.00" departDelay="0.00" arrival="498.90" arrivalLane="51i_0" arrivalPos="10.00" arrivalSpeed="10.94" duration="25.90" routeLength="219.73" waitingTime="0.00" waitingCount="0" stopTime="0.00" timeLoss="5.64" rerouteNo="0" devices="tripinfo_car_straight_11" vType="type_car" speedFactor="0.89" vaporized=""/>
    <tripinfo id="bike_right_12" depart="480.00" departLane="51o_0" departPos="1.70" departSpeed="0.00" departDelay="0.00" arrival="528.30" arrivalLane=":0_11_0" arrivalPos="6.78" arrivalSpeed="2.48" duration="48.30" routeLength="117.98" waitingTime="0.00" waitingCount="0" stopTime="0.00" timeLoss="2.21" rerouteNo="0" devices="tripinfo_bike_right_12" vType="type_bike" speedFactor="0.83" vaporized="collision"/>
    <tripinfo id="car_straight_12" depart="512.00" departLane="52o_0" departPos="5.10" departSpeed="0.00" departDelay="0.00" arrival="528.30" arrivalLane=":0_4_0" arrivalPos="9.02" arrivalSpeed="5.15" duration="16.30" routeLength="106.82" waitingTime="0.00" waitingCount="0" stopTime="0.00" timeLoss="7.30" rerouteNo="0" devices="tripinfo_car_straight_12" vType="type_car" speedFactor="0.87" vaporized="collision"/>
    <tripinfo id="bike_left_11" depart="440.00" departLane="51o_0" departPos="1.70" departSpeed="0.00" departDelay="0.00" arrival="530.20" arrivalLane="53i_0" arrivalPos="10.00" arrivalSpeed="2.49" duration="90.20" routeLength="223.13" waitingTime="0.00" waitingCount="0" stopTime="0.00" timeLoss="3.05" rerouteNo="0" devices="tripinfo_bike_left_11" vType="type_bike" speedFactor="0.97" vaporized=""/>
    <tripinfo id="car_straight_13" depart="553.00" departLane="53o_0" departPos="5.10" departSpeed="0.00" departDelay="0.00" arrival="577.30" arrivalLane="52i_0" arrivalPos="10.00" arrivalSpeed="11.56" duration="24.30" routeLength="209.73" waitingTime="0.00" waitingCount="0" stopTime="0.00" timeLoss="5.71" rerouteNo="0" devices="tripinfo_car_straight_13" vType="type_car" speedFactor="0.95" vaporized=""/>
    <tripinfo id="bike_left_14" depart="560.00" departLane="51o_0" departPos="1.70" departSpeed="0.00" departDelay="0.00" arrival="609.00" arrivalLane=":0_9_0" arrivalPos="8.36" arrivalSpeed="2.49" duration="49.00" routeLength="119.56" waitingTime="0.00" waitingCount="0" stopTime="0.00" timeLoss="2.30" rerouteNo="0" devices="tripinfo_bike_left_14" vType="type_bike" speedFactor="1.13" vaporized="collision"/>
    <tripinfo id="car_straight_14" depart="594.00" departLane="52o_0" departPos="5.10" departSpeed="0.00" departDelay="0.00" arrival="609.00" arrivalLane=":0_5_0" arrivalPos="11.88" arrivalSpeed="9.38" duration="15.00" routeLength="109.68" waitingTime="0.00" waitingCount="0" stopTime="0.00" timeLoss="5.80" rerouteNo="0" devices="tripinfo_car_straight_14" vType="type_car" speedFactor="0.93" vaporized="collision"/>
    <tripinfo id="bike_left_13" depart="522.00" departLane="51o_0" departPos="1.70" departSpeed="0.00" departDelay="0.00" arrival="612.10" arrivalLane="53i_0" arrivalPos="10.00" arrivalSpeed="2.47" duration="90.10" routeLength="223.13" waitingTime="0.00" waitingCount="0" stopTime="0.00" timeLoss="2.95" rerouteNo="0" devices="tripinfo_bike_left_13" vType="type_bike" speedFactor="0.92" vaporized=""/>
    <tripinfo id="car_straight_15" depart="633.00" departLane="54o_0" departPos="5.10" departSpeed="0.00" departDelay="0.00" arrival="657.50" arrivalLane="51i_0" arrivalPos="10.00" arrivalSpeed="11.90" duration="24.50" routeLength="219.73" waitingTime="0.00" waitingCount="0" stopTime="0.00" timeLoss="6.11" rerouteNo="0" devices="tripinfo_car_straight_15" vType="type_car" speedFactor="1.15" vaporized=""/>
    <tripinfo id="bike_straight_15" depart="601.00" departLane="51o_0" departPos="1.70" departSpeed="0.00" departDelay="0.00" arrival="693.50" arrivalLane="52i_0" arrivalPos="10.00" arrivalSpeed="2.53" duration="92.50" routeLength="228.50" waitingTime="0.00" waitingCount="0" stopTime="0.00" timeLoss="3.21" rerouteNo="0" devices="tripinfo_bike_straight_15" vType="type_bike" speedFactor="1.18" vaporized=""/>
    <tripinfo id="car_straight_16" depart="673.00" departLane="52o_0" departPos="5.10" departSpeed="0.00" departDelay="0.00" arrival="696.70" arrivalLane="53i_0" arrivalPos="10.00" arrivalSpeed="11.94" duration="23.70" routeLength="214.89" waitingTime="0.00" waitingCount="0" stopTime="0.00" timeLoss="5.76" rerouteNo="0" devices="tripinfo_car_straight_16" vType="type_car" speedFactor="1.17" vaporized=""/>
    <tripinfo id="bike_right_16" depart="641.00" departLane="51o_0" departPos="1.70" departSpeed="0.00" departDelay="0.00" arrival="733.30" arrivalLane="54i_0" arrivalPos="10.00" arrivalSpeed="2.50" duration="92.30" routeLength="228.29" waitingTime="0.00" waitingCount="0" stopTime="0.00" timeLoss="3.09" rerouteNo="0" devices="tripinfo_bike_right_16" vType="type_bike" speedFactor="1.01" vaporized=""/>
    <tripinfo id="car_straight_17" depart="712.00" departLane="54o_0" departPos="5.10" departSpeed="0.00" departDelay="0.00" arrival="736.40" arrivalLane="53i_0" arrivalPos="10.00" arrivalSpeed="11.86" duration="24.40" routeLength="215.10" waitingTime="0.00" waitingCount="0" stopTime="0.00" timeLoss="5.97" rerouteNo="0" devices="tripinfo_car_straight_17" vType="type_car" speedFactor="1.02" vaporized=""/>
    <tripinfo id="bike_straight_17" depart="680.00" departLane="51o_0" departPos="1.70" departSpeed="0.00" departDelay="0.00" arrival="772.40" arrivalLane="52i_0" arrivalPos="10.00" arrivalSpeed="2.52" duration="92.40" routeLength="228.50" waitingTime="0.00" waitingCount="0" stopTime="0.00" timeLoss="3.11" rerouteNo="0" devices="tripinfo_bike_straight_17" vType="type_bike" speedFactor="0.99" vaporized=""/>
    <tripinfo id="car_straight_18" depart="752.00" departLane="53o_0" departPos="5.10" departSpeed="0.00" departDelay="0.00" arrival="775.50" arrivalLane="52i_0" arrivalPos="10.00" arrivalSpeed="11.89" duration="23.50" routeLength="209.73" waitingTime="0.00" waitingCount="0" stopTime="0.00" timeLoss="5.99" rerouteNo="0" devices="tripinfo_car_straight_18" vType="type_car" speedFactor="1.18" vaporized=""/>
    <tripinfo id="bike_straight_18" depart="721.00" departLane="51o_0" departPos="1.70" departSpeed="0.00" departDelay="0.00" arrival="813.40" arrivalLane="52i_0" arrivalPos="10.00" arrivalSpeed="2.51" duration="92.40" routeLength="228.50" waitingTime="0.00" waitingCount="0" stopTime="0.00" timeLoss="3.12" rerouteNo="0" devices="tripinfo_bike_straight_18" vType="type_bike" speedFactor="0.97" vaporized=""/>
    <tripinfo id="car_straight_19" depart="793.00" departLane="54o_0" departPos="5.10" departSpeed="0.00" departDelay="0.00" arrival="819.00" arrivalLane="53i_0" arrivalPos="10.00" arrivalSpeed="11.26" duration="26.00" routeLength="215.10" waitingTime="0.00" waitingCount="0" stopTime="0.00" timeLoss="6.39" rerouteNo="0" devices="tripinfo_car_straight_19" vType="type_car" speedFactor="0.90" vaporized=""/>
    <tripinfo id="bike_straight_19" depart="761.00" departLane="51o_0" departPos="1.70" departSpeed="0.00" departDelay="0.00" arrival="854.90" arrivalLane="52i_0" arrivalPos="10.00" arrivalSpeed="2.50" duration="93.90" routeLength="228.50" waitingTime="0.00" waitingCount="0" stopTime="0.00" timeLoss="4.68" rerouteNo="0" devices="tripinfo_bike_straight_19" vType="type_bike" speedFactor="1.10" vaporized=""/>
</tripinfos>
