<?xml version="1.0" encoding="UTF-8"?>

<!-- generated on 2023-06-19 16:48:20 by Eclipse SUMO sumo Version 1.17.0
<configuration xmlns:xsi="http://www.w3.org/2001/XMLSchema-instance" xsi:noNamespaceSchemaLocation="http://sumo.dlr.de/xsd/sumoConfiguration.xsd">

    <input>
        <net-file value="simulationData/cross.net.xml"/>
        <route-files value="simulationData/cross.rou.xml"/>
    </input>

    <output>
        <tripinfo-output value="tripinfo.xml"/>
        <collision-output value="collisions.txt"/>
    </output>

    <time>
        <begin value="0"/>
        <step-length value="0.1"/>
    </time>

    <processing>
        <collision.action value="remove"/>
        <collision.check-junctions value="true"/>
    </processing>

    <report>
        <verbose value="true"/>
        <no-step-log value="true"/>
    </report>

    <traci_server>
        <remote-port value="57620"/>
    </traci_server>

</configuration>
-->

<tripinfos xmlns:xsi="http://www.w3.org/2001/XMLSchema-instance" xsi:noNamespaceSchemaLocation="http://sumo.dlr.de/xsd/tripinfo_file.xsd">
    <tripinfo id="car_straight_0" depart="33.00" departLane="53o_0" departPos="5.10" departSpeed="0.00" departDelay="0.00" arrival="57.30" arrivalLane="52i_0" arrivalPos="10.00" arrivalSpeed="11.47" duration="24.30" routeLength="209.73" waitingTime="0.00" waitingCount="0" stopTime="0.00" timeLoss="5.53" rerouteNo="0" devices="tripinfo_car_straight_0" vType="type_car" speedFactor="0.94" vaporized=""/>
    <tripinfo id="bike_left_0" depart="0.00" departLane="51o_0" departPos="1.70" departSpeed="0.00" departDelay="0.00" arrival="90.30" arrivalLane="53i_0" arrivalPos="10.00" arrivalSpeed="2.52" duration="90.30" routeLength="223.13" waitingTime="0.00" waitingCount="0" stopTime="0.00" timeLoss="3.11" rerouteNo="0" devices="tripinfo_bike_left_0" vType="type_bike" speedFactor="1.06" vaporized=""/>
    <tripinfo id="car_straight_1" depart="74.00" departLane="52o_0" departPos="5.10" departSpeed="0.00" departDelay="0.00" arrival="97.90" arrivalLane="53i_0" arrivalPos="10.00" arrivalSpeed="11.96" duration="23.90" routeLength="214.89" waitingTime="0.00" waitingCount="0" stopTime="0.00" timeLoss="5.97" rerouteNo="0" devices="tripinfo_car_straight_1" vType="type_car" speedFactor="1.08" vaporized=""/>
    <tripinfo id="bike_straight_1" depart="42.00" departLane="51o_0" departPos="1.70" departSpeed="0.00" departDelay="0.00" arrival="134.50" arrivalLane="52i_0" arrivalPos="10.00" arrivalSpeed="2.46" duration="92.50" routeLength="228.50" waitingTime="0.00" waitingCount="0" stopTime="0.00" timeLoss="3.26" rerouteNo="0" devices="tripinfo_bike_straight_1" vType="type_bike" speedFactor="1.01" vaporized=""/>
    <tripinfo id="car_straight_2" depart="113.00" departLane="53o_0" departPos="5.10" departSpeed="0.00" departDelay="0.00" arrival="140.60" arrivalLane="51i_0" arrivalPos="10.00" arrivalSpeed="10.41" duration="27.60" routeLength="224.89" waitingTime="0.00" waitingCount="0" stopTime="0.00" timeLoss="6.19" rerouteNo="0" devices="tripinfo_car_straight_2" vType="type_car" speedFactor="0.83" vaporized=""/>
    <tripinfo id="bike_left_2" depart="81.00" departLane="51o_0" departPos="1.70" departSpeed="0.00" departDelay="0.00" arrival="171.20" arrivalLane="53i_0" arrivalPos="10.00" arrivalSpeed="2.51" duration="90.20" routeLength="223.13" waitingTime="0.00" waitingCount="0" stopTime="0.00" timeLoss="3.07" rerouteNo="0" devices="tripinfo_bike_left_2" vType="type_bike" speedFactor="1.03" vaporized=""/>
    <tripinfo id="car_straight_3" depart="154.00" departLane="54o_0" departPos="5.10" departSpeed="0.00" departDelay="0.00" arrival="180.20" arrivalLane="51i_0" arrivalPos="10.00" arrivalSpeed="10.98" duration="26.20" routeLength="219.73" waitingTime="0.00" waitingCount="0" stopTime="0.00" timeLoss="5.85" rerouteNo="0" devices="tripinfo_car_straight_3" vType="type_car" speedFactor="0.89" vaporized=""/>
    <tripinfo id="bike_straight_4" depart="161.00" departLane="51o_0" departPos="1.70" departSpeed="0.00" departDelay="0.00" arrival="209.90" arrivalLane=":0_10_0" arrivalPos="8.09" arrivalSpeed="2.54" duration="48.90" routeLength="119.29" waitingTime="0.00" waitingCount="0" stopTime="0.00" timeLoss="2.30" rerouteNo="0" devices="tripinfo_bike_straight_4" vType="type_bike" speedFactor="0.94" vaporized="collision"/>
    <tripinfo id="car_straight_4" depart="192.00" departLane="53o_0" departPos="5.10" departSpeed="0.00" departDelay="0.00" arrival="209.90" arrivalLane=":0_7_0" arrivalPos="8.26" arrivalSpeed="4.59" duration="17.90" routeLength="106.06" waitingTime="0.40" waitingCount="1" stopTime="0.00" timeLoss="8.96" rerouteNo="0" devices="tripinfo_car_straight_4" vType="type_car" speedFactor="0.86" vaporized="collision"/>
    <tripinfo id="bike_straight_3" depart="120.00" departLane="51o_0" departPos="1.70" departSpeed="0.00" departDelay="0.00" arrival="212.20" arrivalLane="52i_0" arrivalPos="10.00" arrivalSpeed="2.52" duration="92.20" routeLength="228.50" waitingTime="0.00" waitingCount="0" stopTime="0.00" timeLoss="2.95" rerouteNo="0" devices="tripinfo_bike_straight_3" vType="type_bike" speedFactor="1.05" vaporized=""/>
    <tripinfo id="car_straight_5" depart="232.00" departLane="53o_0" departPos="5.10" departSpeed="0.00" departDelay="0.00" arrival="255.90" arrivalLane="52i_0" arrivalPos="10.00" arrivalSpeed="12.00" duration="23.90" routeLength="209.73" waitingTime="0.00" waitingCount="0" stopTime="0.00" timeLoss="5.92" rerouteNo="0" devices="tripinfo_car_straight_5" vType="type_car" speedFactor="1.03" vaporized=""/>
    <tripinfo id="bike_left_5" depart="201.00" departLane="51o_0" departPos="1.70" departSpeed="0.00" departDelay="0.00" arrival="291.20" arrivalLane="53i_0" arrivalPos="10.00" arrivalSpeed="2.53" duration="90.20" routeLength="223.13" waitingTime="0.00" waitingCount="0" stopTime="0.00" timeLoss="2.99" rerouteNo="0" devices="tripinfo_bike_left_5" vType="type_bike" speedFactor="1.09" vaporized=""/>
    <tripinfo id="car_straight_6" depart="272.00" departLane="52o_0" departPos="5.10" departSpeed="0.00" departDelay="0.00" arrival="296.80" arrivalLane="51i_0" arrivalPos="10.00" arrivalSpeed="11.86" duration="24.80" routeLength="225.10" waitingTime="0.00" waitingCount="0" stopTime="0.00" timeLoss="6.03" rerouteNo="0" devices="tripinfo_car_straight_6" vType="type_car" speedFactor="1.12" vaporized=""/>
    <tripinfo id="bike_left_6" depart="241.00" departLane="51o_0" departPos="1.70" departSpeed="0.00" departDelay="0.00" arrival="331.40" arrivalLane="53i_0" arrivalPos="10.00" arrivalSpeed="2.53" duration="90.40" routeLength="223.13" waitingTime="0.00" waitingCount="0" stopTime="0.00" timeLoss="3.24" rerouteNo="0" devices="tripinfo_bike_left_6" vType="type_bike" speedFactor="1.05" vaporized=""/>
    <tripinfo id="car_straight_7" depart="312.00" departLane="54o_0" departPos="5.10" departSpeed="0.00" departDelay="0.00" arrival="337.20" arrivalLane="52i_0" arrivalPos="10.00" arrivalSpeed="11.44" duration="25.20" routeLength="214.89" waitingTime="0.00" waitingCount="0" stopTime="0.00" timeLoss="5.88" rerouteNo="0" devices="tripinfo_car_straight_7" vType="type_car" speedFactor="0.93" vaporized=""/>
    <tripinfo id="bike_straight_7" depart="282.00" departLane="51o_0" departPos="1.70" departSpeed="0.00" departDelay="0.00" arrival="374.30" arrivalLane="52i_0" arrivalPos="10.00" arrivalSpeed="2.48" duration="92.30" routeLength="228.50" waitingTime="0.00" waitingCount="0" stopTime="0.00" timeLoss="3.01" rerouteNo="0" devices="tripinfo_bike_straight_7" vType="type_bike" speedFactor="0.99" vaporized=""/>
    <tripinfo id="car_straight_8" depart="353.00" departLane="52o_0" departPos="5.10" departSpeed="0.00" departDelay="0.00" arrival="378.80" arrivalLane="51i_0" arrivalPos="10.00" arrivalSpeed="11.58" duration="25.80" routeLength="225.10" waitingTime="0.00" waitingCount="0" stopTime="0.00" timeLoss="5.72" rerouteNo="0" devices="tripinfo_car_straight_8" vType="type_car" speedFactor="0.94" vaporized=""/>
    <tripinfo id="bike_straight_9" depart="360.00" departLane="51o_0" departPos="1.70" departSpeed="0.00" departDelay="0.00" arrival="407.80" arrivalLane=":0_10_0" arrivalPos="5.56" arrivalSpeed="2.48" duration="47.80" routeLength="116.76" waitingTime="0.00" waitingCount="0" stopTime="0.00" timeLoss="2.19" rerouteNo="0" devices="tripinfo_bike_straight_9" vType="type_bike" speedFactor="0.94" vaporized="collision"/>
    <tripinfo id="car_straight_9" depart="392.00" departLane="53o_0" departPos="5.10" departSpeed="0.00" departDelay="0.00" arrival="407.80" arrivalLane=":0_8_0" arrivalPos="7.89" arrivalSpeed="5.15" duration="15.80" routeLength="105.69" waitingTime="0.00" waitingCount="0" stopTime="0.00" timeLoss="6.99" rerouteNo="0" devices="tripinfo_car_straight_9" vType="type_car" speedFactor="1.16" vaporized="collision"/>
    <tripinfo id="bike_straight_8" depart="320.00" departLane="51o_0" departPos="1.70" departSpeed="0.00" departDelay="0.00" arrival="412.40" arrivalLane="52i_0" arrivalPos="10.00" arrivalSpeed="2.50" duration="92.40" routeLength="228.50" waitingTime="0.00" waitingCount="0" stopTime="0.00" timeLoss="3.14" rerouteNo="0" devices="tripinfo_bike_straight_8" vType="type_bike" speedFactor="0.88" vaporized=""/>
    <tripinfo id="car_straight_10" depart="433.00" departLane="53o_0" departPos="5.10" departSpeed="0.00" departDelay="0.00" arrival="458.20" arrivalLane="51i_0" arrivalPos="10.00" arrivalSpeed="11.90" duration="25.20" routeLength="224.89" waitingTime="0.00" waitingCount="0" stopTime="0.00" timeLoss="5.82" rerouteNo="0" devices="tripinfo_car_straight_10" vType="type_car" speedFactor="1.01" vaporized=""/>
    <tripinfo id="bike_right_11" depart="440.00" departLane="51o_0" departPos="1.70" departSpeed="0.00" departDelay="0.00" arrival="488.00" arrivalLane=":0_11_0" arrivalPos="5.87" arrivalSpeed="2.54" duration="48.00" routeLength="117.07" waitingTime="0.00" waitingCount="0" stopTime="0.00" timeLoss="2.27" rerouteNo="0" devices="tripinfo_bike_right_11" vType="type_bike" speedFactor="0.97" vaporized="collision"/>
    <tripinfo id="car_straight_11" depart="472.00" departLane="52o_0" departPos="5.10" departSpeed="0.00" departDelay="0.00" arrival="488.00" arrivalLane=":0_4_0" arrivalPos="10.12" arrivalSpeed="6.20" duration="16.00" routeLength="107.92" waitingTime="0.00" waitingCount="0" stopTime="0.00" timeLoss="6.92" rerouteNo="0" devices="tripinfo_car_straight_11" vType="type_car" speedFactor="0.89" vaporized="collision"/>
    <tripinfo id="bike_left_10" depart="401.00" departLane="51o_0" departPos="1.70" departSpeed="0.00" departDelay="0.00" arrival="491.30" arrivalLane="53i_0" arrivalPos="10.00" arrivalSpeed="2.47" duration="90.30" routeLength="223.13" waitingTime="0.00" waitingCount="0" stopTime="0.00" timeLoss="3.14" rerouteNo="0" devices="tripinfo_bike_left_10" vType="type_bike" speedFactor="1.02" vaporized=""/>
    <tripinfo id="car_straight_12" depart="514.00" departLane="52o_0" departPos="5.10" departSpeed="0.00" departDelay="0.00" arrival="540.50" arrivalLane="51i_0" arrivalPos="10.00" arrivalSpeed="10.68" duration="26.50" routeLength="225.10" waitingTime="0.00" waitingCount="0" stopTime="0.00" timeLoss="5.58" rerouteNo="0" devices="tripinfo_car_straight_12" vType="type_car" speedFactor="0.87" vaporized=""/>
    <tripinfo id="bike_left_12" depart="481.00" departLane="51o_0" departPos="1.70" departSpeed="0.00" departDelay="0.00" arrival="571.20" arrivalLane="53i_0" arrivalPos="10.00" arrivalSpeed="2.50" duration="90.20" routeLength="223.13" waitingTime="0.00" waitingCount="0" stopTime="0.00" timeLoss="3.02" rerouteNo="0" devices="tripinfo_bike_left_12" vType="type_bike" speedFactor="0.83" vaporized=""/>
    <tripinfo id="car_straight_13" depart="553.00" departLane="54o_0" departPos="5.10" departSpeed="0.00" departDelay="0.00" arrival="577.60" arrivalLane="53i_0" arrivalPos="10.00" arrivalSpeed="11.71" duration="24.60" routeLength="215.10" waitingTime="0.00" waitingCount="0" stopTime="0.00" timeLoss="5.53" rerouteNo="0" devices="tripinfo_car_straight_13" vType="type_car" speedFactor="0.95" vaporized=""/>
    <tripinfo id="bike_right_13" depart="520.00" departLane="51o_0" departPos="1.70" departSpeed="0.00" departDelay="0.00" arrival="614.30" arrivalLane="54i_0" arrivalPos="10.00" arrivalSpeed="2.54" duration="94.30" routeLength="228.29" waitingTime="0.20" waitingCount="1" stopTime="0.00" timeLoss="5.11" rerouteNo="0" devices="tripinfo_bike_right_13" vType="type_bike" speedFactor="0.92" vaporized=""/>
    <tripinfo id="car_straight_14" depart="594.00" departLane="53o_0" departPos="5.10" departSpeed="0.00" departDelay="0.00" arrival="619.90" arrivalLane="51i_0" arrivalPos="10.00" arrivalSpeed="11.18" duration="25.90" routeLength="224.89" waitingTime="0.00" waitingCount="0" stopTime="0.00" timeLoss="5.69" rerouteNo="0" devices="tripinfo_car_straight_14" vType="type_car" speedFactor="0.93" vaporized=""/>
    <tripinfo id="bike_straight_15" depart="600.00" departLane="51o_0" departPos="1.70" departSpeed="0.00" departDelay="0.00" arrival="647.60" arrivalLane=":0_10_0" arrivalPos="4.73" arrivalSpeed="2.54" duration="47.60" routeLength="115.93" waitingTime="0.00" waitingCount="0" stopTime="0.00" timeLoss="2.32" rerouteNo="0" devices="tripinfo_bike_straight_15" vType="type_bike" speedFactor="1.18" vaporized="collision"/>
    <tripinfo id="car_straight_15" depart="633.00" departLane="53o_0" departPos="5.10" departSpeed="0.00" departDelay="0.00" arrival="647.60" arrivalLane=":0_8_0" arrivalPos="9.41" arrivalSpeed="8.25" duration="14.60" routeLength="107.21" waitingTime="0.00" waitingCount="0" stopTime="0.00" timeLoss="5.67" rerouteNo="0" devices="tripinfo_car_straight_15" vType="type_car" speedFactor="1.15" vaporized="collision"/>
    <tripinfo id="bike_left_14" depart="560.00" departLane="51o_0" departPos="1.70" departSpeed="0.00" departDelay="0.00" arrival="650.30" arrivalLane="53i_0" arrivalPos="10.00" arrivalSpeed="2.50" duration="90.30" routeLength="223.13" waitingTime="0.00" waitingCount="0" stopTime="0.00" timeLoss="3.08" rerouteNo="0" devices="tripinfo_bike_left_14" vType="type_bike" speedFactor="1.13" vaporized=""/>
    <tripinfo id="car_straight_16" depart="672.00" departLane="54o_0" departPos="5.10" departSpeed="0.00" departDelay="0.00" arrival="696.00" arrivalLane="53i_0" arrivalPos="10.00" arrivalSpeed="11.93" duration="24.00" routeLength="215.10" waitingTime="0.00" waitingCount="0" stopTime="0.00" timeLoss="6.05" rerouteNo="0" devices="tripinfo_car_straight_16" vType="type_car" speedFactor="1.17" vaporized=""/>
    <tripinfo id="bike_right_17" depart="680.00" departLane="51o_0" departPos="1.70" departSpeed="0.00" departDelay="0.00" arrival="727.90" arrivalLane=":0_11_0" arrivalPos="5.57" arrivalSpeed="2.52" duration="47.90" routeLength="116.77" waitingTime="0.00" waitingCount="0" stopTime="0.00" timeLoss="2.29" rerouteNo="0" devices="tripinfo_bike_right_17" vType="type_bike" speedFactor="0.99" vaporized="collision"/>
    <tripinfo id="car_straight_17" depart="712.00" departLane="53o_0" departPos="5.10" departSpeed="0.00" departDelay="0.00" arrival="727.90" arrivalLane=":0_8_0" arrivalPos="7.54" arrivalSpeed="4.74" duration="15.90" routeLength="105.34" waitingTime="0.00" waitingCount="0" stopTime="0.00" timeLoss="7.10" rerouteNo="0" devices="tripinfo_car_straight_17" vType="type_car" speedFactor="1.02" vaporized="collision"/>
    <tripinfo id="bike_right_16" depart="640.00" departLane="51o_0" departPos="1.70" departSpeed="0.00" departDelay="0.00" arrival="732.40" arrivalLane="54i_0" arrivalPos="10.00" arrivalSpeed="2.56" duration="92.40" routeLength="228.29" waitingTime="0.00" waitingCount="0" stopTime="0.00" timeLoss="3.20" rerouteNo="0" devices="tripinfo_bike_right_16" vType="type_bike" speedFactor="1.01" vaporized=""/>
    <tripinfo id="car_straight_18" depart="752.00" departLane="53o_0" departPos="5.10" departSpeed="0.00" departDelay="0.00" arrival="775.30" arrivalLane="52i_0" arrivalPos="10.00" arrivalSpeed="11.94" duration="23.30" routeLength="209.73" waitingTime="0.00" waitingCount="0" stopTime="0.00" timeLoss="5.83" rerouteNo="0" devices="tripinfo_car_straight_18" vType="type_car" speedFactor="1.18" vaporized=""/>
    <tripinfo id="bike_left_18" depart="720.00" departLane="51o_0" departPos="1.70" departSpeed="0.00" departDelay="0.00" arrival="810.30" arrivalLane="53i_0" arrivalPos="10.00" arrivalSpeed="2.50" duration="90.30" routeLength="223.13" waitingTime="0.00" waitingCount="0" stopTime="0.00" timeLoss="3.14" rerouteNo="0" devices="tripinfo_bike_left_18" vType="type_bike" speedFactor="0.97" vaporized=""/>
    <tripinfo id="car_straight_19" depart="792.00" departLane="52o_0" departPos="5.10" departSpeed="0.00" departDelay="0.00" arrival="817.20" arrivalLane="53i_0" arrivalPos="10.00" arrivalSpeed="11.34" duration="25.20" routeLength="214.89" waitingTime="0.00" waitingCount="0" stopTime="0.00" timeLoss="5.62" rerouteNo="0" devices="tripinfo_car_straight_19" vType="type_car" speedFactor="0.90" vaporized=""/>
    <tripinfo id="bike_left_19" depart="761.00" departLane="51o_0" departPos="1.70" departSpeed="0.00" departDelay="0.00" arrival="851.20" arrivalLane="53i_0" arrivalPos="10.00" arrivalSpeed="2.53" duration="90.20" routeLength="223.13" waitingTime="0.00" waitingCount="0" stopTime="0.00" timeLoss="3.04" rerouteNo="0" devices="tripinfo_bike_left_19" vType="type_bike" speedFactor="1.10" vaporized=""/>
</tripinfos>
