<?xml version="1.0" encoding="UTF-8"?>

<!-- generated on 2023-09-07 19:46:19 by Eclipse SUMO sumo Version 1.17.0
<configuration xmlns:xsi="http://www.w3.org/2001/XMLSchema-instance" xsi:noNamespaceSchemaLocation="http://sumo.dlr.de/xsd/sumoConfiguration.xsd">

    <input>
        <net-file value="simulationData/sumo_nets/two_simple_curves.net.xml"/>
        <route-files value="simulationData/cross.rou.xml"/>
    </input>

    <output>
        <tripinfo-output value="tripinfo.xml"/>
        <collision-output value="collisions.txt"/>
    </output>

    <time>
        <begin value="0"/>
        <step-length value="0.1"/>
    </time>

    <processing>
        <collision.action value="remove"/>
        <collision.check-junctions value="true"/>
        <collision.mingap-factor value="0"/>
        <time-to-teleport value="-1"/>
    </processing>

    <report>
        <verbose value="true"/>
        <no-step-log value="true"/>
    </report>

    <traci_server>
        <remote-port value="52787"/>
    </traci_server>

</configuration>
-->

<tripinfos xmlns:xsi="http://www.w3.org/2001/XMLSchema-instance" xsi:noNamespaceSchemaLocation="http://sumo.dlr.de/xsd/tripinfo_file.xsd">
    <tripinfo id="car_straight_0" depart="24.00" departLane="54o_0" departPos="5.10" departSpeed="0.00" departDelay="0.00" arrival="50.70" arrivalLane="53i_0" arrivalPos="10.00" arrivalSpeed="11.58" duration="26.70" routeLength="236.54" waitingTime="0.00" waitingCount="0" stopTime="0.00" timeLoss="5.43" rerouteNo="0" devices="tripinfo_car_straight_0" vType="type_car" speedFactor="0.94" vaporized=""/>
    <tripinfo id="bike_left_0" depart="0.00" departLane="51o_0" departPos="1.70" departSpeed="0.00" departDelay="0.00" arrival="88.60" arrivalLane="52i_0" arrivalPos="10.00" arrivalSpeed="2.52" duration="88.60" routeLength="218.86" waitingTime="0.00" waitingCount="0" stopTime="0.00" timeLoss="3.06" rerouteNo="0" devices="tripinfo_bike_left_0" vType="type_bike" speedFactor="1.06" vaporized=""/>
    <tripinfo id="car_straight_1" depart="84.00" departLane="54o_0" departPos="5.10" departSpeed="0.00" departDelay="0.00" arrival="109.50" arrivalLane="53i_0" arrivalPos="10.00" arrivalSpeed="11.96" duration="25.50" routeLength="236.54" waitingTime="0.00" waitingCount="0" stopTime="0.00" timeLoss="5.70" rerouteNo="0" devices="tripinfo_car_straight_1" vType="type_car" speedFactor="1.08" vaporized=""/>
    <tripinfo id="bike_left_1" depart="61.00" departLane="51o_0" departPos="1.70" departSpeed="0.00" departDelay="0.00" arrival="149.60" arrivalLane="52i_0" arrivalPos="10.00" arrivalSpeed="2.48" duration="88.60" routeLength="218.86" waitingTime="0.00" waitingCount="0" stopTime="0.00" timeLoss="3.06" rerouteNo="0" devices="tripinfo_bike_left_1" vType="type_bike" speedFactor="1.01" vaporized=""/>
    <tripinfo id="car_straight_2" depart="145.00" departLane="54o_0" departPos="5.10" departSpeed="0.00" departDelay="0.00" arrival="173.30" arrivalLane="53i_0" arrivalPos="10.00" arrivalSpeed="10.52" duration="28.30" routeLength="236.54" waitingTime="0.00" waitingCount="0" stopTime="0.00" timeLoss="5.42" rerouteNo="0" devices="tripinfo_car_straight_2" vType="type_car" speedFactor="0.83" vaporized=""/>
    <tripinfo id="bike_left_2" depart="121.00" departLane="51o_0" departPos="1.70" departSpeed="0.00" departDelay="0.00" arrival="209.50" arrivalLane="52i_0" arrivalPos="10.00" arrivalSpeed="2.46" duration="88.50" routeLength="218.86" waitingTime="0.00" waitingCount="0" stopTime="0.00" timeLoss="3.04" rerouteNo="0" devices="tripinfo_bike_left_2" vType="type_bike" speedFactor="1.03" vaporized=""/>
    <tripinfo id="car_straight_3" depart="206.00" departLane="54o_0" departPos="5.10" departSpeed="0.00" departDelay="0.00" arrival="233.20" arrivalLane="53i_0" arrivalPos="10.00" arrivalSpeed="10.97" duration="27.20" routeLength="236.54" waitingTime="0.00" waitingCount="0" stopTime="0.00" timeLoss="5.21" rerouteNo="0" devices="tripinfo_car_straight_3" vType="type_car" speedFactor="0.89" vaporized=""/>
    <tripinfo id="bike_left_3" depart="180.00" departLane="51o_0" departPos="1.70" departSpeed="0.00" departDelay="0.00" arrival="268.50" arrivalLane="52i_0" arrivalPos="10.00" arrivalSpeed="2.52" duration="88.50" routeLength="218.86" waitingTime="0.00" waitingCount="0" stopTime="0.00" timeLoss="2.98" rerouteNo="0" devices="tripinfo_bike_left_3" vType="type_bike" speedFactor="1.05" vaporized=""/>
    <tripinfo id="car_straight_4" depart="265.00" departLane="54o_0" departPos="5.10" departSpeed="0.00" departDelay="0.00" arrival="292.50" arrivalLane="53i_0" arrivalPos="10.00" arrivalSpeed="10.76" duration="27.50" routeLength="236.54" waitingTime="0.00" waitingCount="0" stopTime="0.00" timeLoss="5.10" rerouteNo="0" devices="tripinfo_car_straight_4" vType="type_car" speedFactor="0.86" vaporized=""/>
    <tripinfo id="bike_left_4" depart="241.00" departLane="51o_0" departPos="1.70" departSpeed="0.00" departDelay="0.00" arrival="329.70" arrivalLane="52i_0" arrivalPos="10.00" arrivalSpeed="2.55" duration="88.70" routeLength="218.86" waitingTime="0.00" waitingCount="0" stopTime="0.00" timeLoss="3.15" rerouteNo="0" devices="tripinfo_bike_left_4" vType="type_bike" speedFactor="0.94" vaporized=""/>
    <tripinfo id="car_straight_5" depart="324.00" departLane="54o_0" departPos="5.10" departSpeed="0.00" departDelay="0.00" arrival="350.20" arrivalLane="53i_0" arrivalPos="10.00" arrivalSpeed="11.97" duration="26.20" routeLength="236.54" waitingTime="0.00" waitingCount="0" stopTime="0.00" timeLoss="5.92" rerouteNo="0" devices="tripinfo_car_straight_5" vType="type_car" speedFactor="1.03" vaporized=""/>
    <tripinfo id="bike_left_5" depart="302.00" departLane="51o_0" departPos="1.70" departSpeed="0.00" departDelay="0.00" arrival="390.60" arrivalLane="52i_0" arrivalPos="10.00" arrivalSpeed="2.54" duration="88.60" routeLength="218.86" waitingTime="0.00" waitingCount="0" stopTime="0.00" timeLoss="3.06" rerouteNo="0" devices="tripinfo_bike_left_5" vType="type_bike" speedFactor="1.09" vaporized=""/>
    <tripinfo id="car_straight_6" depart="384.00" departLane="54o_0" departPos="5.10" departSpeed="0.00" departDelay="0.00" arrival="410.00" arrivalLane="53i_0" arrivalPos="10.00" arrivalSpeed="11.93" duration="26.00" routeLength="236.54" waitingTime="0.00" waitingCount="0" stopTime="0.00" timeLoss="6.29" rerouteNo="0" devices="tripinfo_car_straight_6" vType="type_car" speedFactor="1.12" vaporized=""/>
    <tripinfo id="bike_left_6" depart="360.00" departLane="51o_0" departPos="1.70" departSpeed="0.00" departDelay="0.00" arrival="448.30" arrivalLane="52i_0" arrivalPos="10.00" arrivalSpeed="2.53" duration="88.30" routeLength="218.86" waitingTime="0.00" waitingCount="0" stopTime="0.00" timeLoss="2.82" rerouteNo="0" devices="tripinfo_bike_left_6" vType="type_bike" speedFactor="1.05" vaporized=""/>
    <tripinfo id="car_straight_7" depart="445.00" departLane="54o_0" departPos="5.10" departSpeed="0.00" departDelay="0.00" arrival="472.20" arrivalLane="53i_0" arrivalPos="10.00" arrivalSpeed="11.05" duration="27.20" routeLength="236.54" waitingTime="0.00" waitingCount="0" stopTime="0.00" timeLoss="5.79" rerouteNo="0" devices="tripinfo_car_straight_7" vType="type_car" speedFactor="0.93" vaporized=""/>
    <tripinfo id="bike_left_7" depart="421.00" departLane="51o_0" departPos="1.70" departSpeed="0.00" departDelay="0.00" arrival="509.40" arrivalLane="52i_0" arrivalPos="10.00" arrivalSpeed="2.54" duration="88.40" routeLength="218.86" waitingTime="0.00" waitingCount="0" stopTime="0.00" timeLoss="2.86" rerouteNo="0" devices="tripinfo_bike_left_7" vType="type_bike" speedFactor="0.99" vaporized=""/>
    <tripinfo id="car_straight_8" depart="506.00" departLane="54o_0" departPos="5.10" departSpeed="0.00" departDelay="0.00" arrival="532.90" arrivalLane="53i_0" arrivalPos="10.00" arrivalSpeed="11.68" duration="26.90" routeLength="236.54" waitingTime="0.00" waitingCount="0" stopTime="0.00" timeLoss="5.58" rerouteNo="0" devices="tripinfo_car_straight_8" vType="type_car" speedFactor="0.94" vaporized=""/>
    <tripinfo id="bike_left_8" depart="481.00" departLane="51o_0" departPos="1.70" departSpeed="0.00" departDelay="0.00" arrival="569.50" arrivalLane="52i_0" arrivalPos="10.00" arrivalSpeed="2.51" duration="88.50" routeLength="218.86" waitingTime="0.00" waitingCount="0" stopTime="0.00" timeLoss="3.02" rerouteNo="0" devices="tripinfo_bike_left_8" vType="type_bike" speedFactor="0.88" vaporized=""/>
    <tripinfo id="car_straight_9" depart="564.00" departLane="54o_0" departPos="5.10" departSpeed="0.00" departDelay="0.00" arrival="589.70" arrivalLane="53i_0" arrivalPos="10.00" arrivalSpeed="11.90" duration="25.70" routeLength="236.54" waitingTime="0.00" waitingCount="0" stopTime="0.00" timeLoss="5.91" rerouteNo="0" devices="tripinfo_car_straight_9" vType="type_car" speedFactor="1.16" vaporized=""/>
    <tripinfo id="bike_left_9" depart="541.00" departLane="51o_0" departPos="1.70" departSpeed="0.00" departDelay="0.00" arrival="629.60" arrivalLane="52i_0" arrivalPos="10.00" arrivalSpeed="2.50" duration="88.60" routeLength="218.86" waitingTime="0.00" waitingCount="0" stopTime="0.00" timeLoss="3.08" rerouteNo="0" devices="tripinfo_bike_left_9" vType="type_bike" speedFactor="0.94" vaporized=""/>
    <tripinfo id="car_straight_10" depart="624.00" departLane="54o_0" departPos="5.10" departSpeed="0.00" departDelay="0.00" arrival="650.20" arrivalLane="53i_0" arrivalPos="10.00" arrivalSpeed="11.88" duration="26.20" routeLength="236.54" waitingTime="0.00" waitingCount="0" stopTime="0.00" timeLoss="5.78" rerouteNo="0" devices="tripinfo_car_straight_10" vType="type_car" speedFactor="1.01" vaporized=""/>
    <tripinfo id="bike_left_10" depart="601.00" departLane="51o_0" departPos="1.70" departSpeed="0.00" departDelay="0.00" arrival="689.50" arrivalLane="52i_0" arrivalPos="10.00" arrivalSpeed="2.48" duration="88.50" routeLength="218.86" waitingTime="0.00" waitingCount="0" stopTime="0.00" timeLoss="2.99" rerouteNo="0" devices="tripinfo_bike_left_10" vType="type_bike" speedFactor="1.02" vaporized=""/>
    <tripinfo id="car_straight_11" depart="686.00" departLane="54o_0" departPos="5.10" departSpeed="0.00" departDelay="0.00" arrival="713.10" arrivalLane="53i_0" arrivalPos="10.00" arrivalSpeed="10.92" duration="27.10" routeLength="236.54" waitingTime="0.00" waitingCount="0" stopTime="0.00" timeLoss="5.17" rerouteNo="0" devices="tripinfo_car_straight_11" vType="type_car" speedFactor="0.89" vaporized=""/>
    <tripinfo id="bike_left_11" depart="661.00" departLane="51o_0" departPos="1.70" departSpeed="0.00" departDelay="0.00" arrival="749.50" arrivalLane="52i_0" arrivalPos="10.00" arrivalSpeed="2.53" duration="88.50" routeLength="218.86" waitingTime="0.00" waitingCount="0" stopTime="0.00" timeLoss="3.00" rerouteNo="0" devices="tripinfo_bike_left_11" vType="type_bike" speedFactor="0.97" vaporized=""/>
    <tripinfo id="car_straight_12" depart="744.00" departLane="54o_0" departPos="5.10" departSpeed="0.00" departDelay="0.00" arrival="771.70" arrivalLane="53i_0" arrivalPos="10.00" arrivalSpeed="10.83" duration="27.70" routeLength="236.54" waitingTime="0.00" waitingCount="0" stopTime="0.00" timeLoss="5.48" rerouteNo="0" devices="tripinfo_car_straight_12" vType="type_car" speedFactor="0.87" vaporized=""/>
    <tripinfo id="bike_left_12" depart="721.00" departLane="51o_0" departPos="1.70" departSpeed="0.00" departDelay="0.00" arrival="809.50" arrivalLane="52i_0" arrivalPos="10.00" arrivalSpeed="2.48" duration="88.50" routeLength="218.86" waitingTime="0.00" waitingCount="0" stopTime="0.00" timeLoss="3.01" rerouteNo="0" devices="tripinfo_bike_left_12" vType="type_bike" speedFactor="0.83" vaporized=""/>
    <tripinfo id="car_straight_13" depart="805.00" departLane="54o_0" departPos="5.10" departSpeed="0.00" departDelay="0.00" arrival="831.60" arrivalLane="53i_0" arrivalPos="10.00" arrivalSpeed="11.56" duration="26.60" routeLength="236.54" waitingTime="0.00" waitingCount="0" stopTime="0.00" timeLoss="5.37" rerouteNo="0" devices="tripinfo_car_straight_13" vType="type_car" speedFactor="0.95" vaporized=""/>
    <tripinfo id="bike_left_13" depart="780.00" departLane="51o_0" departPos="1.70" departSpeed="0.00" departDelay="0.00" arrival="868.40" arrivalLane="52i_0" arrivalPos="10.00" arrivalSpeed="2.50" duration="88.40" routeLength="218.86" waitingTime="0.00" waitingCount="0" stopTime="0.00" timeLoss="2.90" rerouteNo="0" devices="tripinfo_bike_left_13" vType="type_bike" speedFactor="0.92" vaporized=""/>
    <tripinfo id="car_straight_14" depart="865.00" departLane="54o_0" departPos="5.10" departSpeed="0.00" departDelay="0.00" arrival="891.80" arrivalLane="53i_0" arrivalPos="10.00" arrivalSpeed="11.30" duration="26.80" routeLength="236.54" waitingTime="0.00" waitingCount="0" stopTime="0.00" timeLoss="5.39" rerouteNo="0" devices="tripinfo_car_straight_14" vType="type_car" speedFactor="0.93" vaporized=""/>
    <tripinfo id="bike_left_14" depart="841.00" departLane="51o_0" departPos="1.70" departSpeed="0.00" departDelay="0.00" arrival="929.50" arrivalLane="52i_0" arrivalPos="10.00" arrivalSpeed="2.51" duration="88.50" routeLength="218.86" waitingTime="0.00" waitingCount="0" stopTime="0.00" timeLoss="2.99" rerouteNo="0" devices="tripinfo_bike_left_14" vType="type_bike" speedFactor="1.13" vaporized=""/>
    <tripinfo id="car_straight_15" depart="924.00" departLane="54o_0" departPos="5.10" departSpeed="0.00" departDelay="0.00" arrival="949.90" arrivalLane="53i_0" arrivalPos="10.00" arrivalSpeed="11.96" duration="25.90" routeLength="236.54" waitingTime="0.00" waitingCount="0" stopTime="0.00" timeLoss="6.19" rerouteNo="0" devices="tripinfo_car_straight_15" vType="type_car" speedFactor="1.15" vaporized=""/>
    <tripinfo id="bike_left_15" depart="900.00" departLane="51o_0" departPos="1.70" departSpeed="0.00" departDelay="0.00" arrival="988.40" arrivalLane="52i_0" arrivalPos="10.00" arrivalSpeed="2.49" duration="88.40" routeLength="218.86" waitingTime="0.00" waitingCount="0" stopTime="0.00" timeLoss="2.90" rerouteNo="0" devices="tripinfo_bike_left_15" vType="type_bike" speedFactor="1.18" vaporized=""/>
    <tripinfo id="car_straight_16" depart="985.00" departLane="54o_0" departPos="5.10" departSpeed="0.00" departDelay="0.00" arrival="1010.90" arrivalLane="53i_0" arrivalPos="10.00" arrivalSpeed="11.94" duration="25.90" routeLength="236.54" waitingTime="0.00" waitingCount="0" stopTime="0.00" timeLoss="6.17" rerouteNo="0" devices="tripinfo_car_straight_16" vType="type_car" speedFactor="1.17" vaporized=""/>
    <tripinfo id="bike_left_16" depart="962.00" departLane="51o_0" departPos="1.70" departSpeed="0.00" departDelay="0.00" arrival="1050.50" arrivalLane="52i_0" arrivalPos="10.00" arrivalSpeed="2.50" duration="88.50" routeLength="218.86" waitingTime="0.00" waitingCount="0" stopTime="0.00" timeLoss="2.95" rerouteNo="0" devices="tripinfo_bike_left_16" vType="type_bike" speedFactor="1.01" vaporized=""/>
    <tripinfo id="car_straight_17" depart="1046.00" departLane="54o_0" departPos="5.10" departSpeed="0.00" departDelay="0.00" arrival="1072.30" arrivalLane="53i_0" arrivalPos="10.00" arrivalSpeed="11.85" duration="26.30" routeLength="236.54" waitingTime="0.00" waitingCount="0" stopTime="0.00" timeLoss="5.97" rerouteNo="0" devices="tripinfo_car_straight_17" vType="type_car" speedFactor="1.02" vaporized=""/>
    <tripinfo id="bike_left_17" depart="1022.00" departLane="51o_0" departPos="1.70" departSpeed="0.00" departDelay="0.00" arrival="1110.60" arrivalLane="52i_0" arrivalPos="10.00" arrivalSpeed="2.51" duration="88.60" routeLength="218.86" waitingTime="0.00" waitingCount="0" stopTime="0.00" timeLoss="3.14" rerouteNo="0" devices="tripinfo_bike_left_17" vType="type_bike" speedFactor="0.99" vaporized=""/>
    <tripinfo id="car_straight_18" depart="1105.00" departLane="54o_0" departPos="5.10" departSpeed="0.00" departDelay="0.00" arrival="1130.70" arrivalLane="53i_0" arrivalPos="10.00" arrivalSpeed="11.95" duration="25.70" routeLength="236.54" waitingTime="0.00" waitingCount="0" stopTime="0.00" timeLoss="5.99" rerouteNo="0" devices="tripinfo_car_straight_18" vType="type_car" speedFactor="1.18" vaporized=""/>
    <tripinfo id="bike_left_18" depart="1082.00" departLane="51o_0" departPos="1.70" departSpeed="0.00" departDelay="0.00" arrival="1170.70" arrivalLane="52i_0" arrivalPos="10.00" arrivalSpeed="2.50" duration="88.70" routeLength="218.86" waitingTime="0.00" waitingCount="0" stopTime="0.00" timeLoss="3.21" rerouteNo="0" devices="tripinfo_bike_left_18" vType="type_bike" speedFactor="0.97" vaporized=""/>
    <tripinfo id="car_straight_19" depart="1166.00" departLane="54o_0" departPos="5.10" departSpeed="0.00" departDelay="0.00" arrival="1193.10" arrivalLane="53i_0" arrivalPos="10.00" arrivalSpeed="11.37" duration="27.10" routeLength="236.54" waitingTime="0.00" waitingCount="0" stopTime="0.00" timeLoss="5.28" rerouteNo="0" devices="tripinfo_car_straight_19" vType="type_car" speedFactor="0.90" vaporized=""/>
    <tripinfo id="bike_left_19" depart="1141.00" departLane="51o_0" departPos="1.70" departSpeed="0.00" departDelay="0.00" arrival="1229.50" arrivalLane="52i_0" arrivalPos="10.00" arrivalSpeed="2.51" duration="88.50" routeLength="218.86" waitingTime="0.00" waitingCount="0" stopTime="0.00" timeLoss="2.98" rerouteNo="0" devices="tripinfo_bike_left_19" vType="type_bike" speedFactor="1.10" vaporized=""/>
    <tripinfo id="car_straight_20" depart="1225.00" departLane="54o_0" departPos="5.10" departSpeed="0.00" departDelay="0.00" arrival="1251.80" arrivalLane="53i_0" arrivalPos="10.00" arrivalSpeed="11.57" duration="26.80" routeLength="236.54" waitingTime="0.00" waitingCount="0" stopTime="0.00" timeLoss="5.69" rerouteNo="0" devices="tripinfo_car_straight_20" vType="type_car" speedFactor="0.96" vaporized=""/>
    <tripinfo id="bike_left_20" depart="1200.00" departLane="51o_0" departPos="1.70" departSpeed="0.00" departDelay="0.00" arrival="1288.60" arrivalLane="52i_0" arrivalPos="10.00" arrivalSpeed="2.50" duration="88.60" routeLength="218.86" waitingTime="0.00" waitingCount="0" stopTime="0.00" timeLoss="3.07" rerouteNo="0" devices="tripinfo_bike_left_20" vType="type_bike" speedFactor="1.03" vaporized=""/>
    <tripinfo id="car_straight_21" depart="1284.00" departLane="54o_0" departPos="5.10" departSpeed="0.00" departDelay="0.00" arrival="1309.80" arrivalLane="53i_0" arrivalPos="10.00" arrivalSpeed="11.86" duration="25.80" routeLength="236.54" waitingTime="0.00" waitingCount="0" stopTime="0.00" timeLoss="5.58" rerouteNo="0" devices="tripinfo_car_straight_21" vType="type_car" speedFactor="1.04" vaporized=""/>
    <tripinfo id="bike_left_21" depart="1261.00" departLane="51o_0" departPos="1.70" departSpeed="0.00" departDelay="0.00" arrival="1349.60" arrivalLane="52i_0" arrivalPos="10.00" arrivalSpeed="2.56" duration="88.60" routeLength="218.86" waitingTime="0.00" waitingCount="0" stopTime="0.00" timeLoss="3.10" rerouteNo="0" devices="tripinfo_bike_left_21" vType="type_bike" speedFactor="1.09" vaporized=""/>
    <tripinfo id="car_straight_22" depart="1345.00" departLane="54o_0" departPos="5.10" departSpeed="0.00" departDelay="0.00" arrival="1370.90" arrivalLane="53i_0" arrivalPos="10.00" arrivalSpeed="11.86" duration="25.90" routeLength="236.54" waitingTime="0.00" waitingCount="0" stopTime="0.00" timeLoss="6.18" rerouteNo="0" devices="tripinfo_car_straight_22" vType="type_car" speedFactor="1.09" vaporized=""/>
    <tripinfo id="bike_left_22" depart="1320.00" departLane="51o_0" departPos="1.70" departSpeed="0.00" departDelay="0.00" arrival="1408.50" arrivalLane="52i_0" arrivalPos="10.00" arrivalSpeed="2.55" duration="88.50" routeLength="218.86" waitingTime="0.00" waitingCount="0" stopTime="0.00" timeLoss="3.02" rerouteNo="0" devices="tripinfo_bike_left_22" vType="type_bike" speedFactor="1.04" vaporized=""/>
    <tripinfo id="car_straight_23" depart="1405.00" departLane="54o_0" departPos="5.10" departSpeed="0.00" departDelay="0.00" arrival="1432.40" arrivalLane="53i_0" arrivalPos="10.00" arrivalSpeed="10.89" duration="27.40" routeLength="236.54" waitingTime="0.00" waitingCount="0" stopTime="0.00" timeLoss="5.56" rerouteNo="0" devices="tripinfo_car_straight_23" vType="type_car" speedFactor="0.90" vaporized=""/>
    <tripinfo id="bike_left_23" depart="1380.00" departLane="51o_0" departPos="1.70" departSpeed="0.00" departDelay="0.00" arrival="1468.40" arrivalLane="52i_0" arrivalPos="10.00" arrivalSpeed="2.49" duration="88.40" routeLength="218.86" waitingTime="0.00" waitingCount="0" stopTime="0.00" timeLoss="2.93" rerouteNo="0" devices="tripinfo_bike_left_23" vType="type_bike" speedFactor="1.00" vaporized=""/>
    <tripinfo id="car_straight_24" depart="1464.00" departLane="54o_0" departPos="5.10" departSpeed="0.00" departDelay="0.00" arrival="1491.70" arrivalLane="53i_0" arrivalPos="10.00" arrivalSpeed="10.59" duration="27.70" routeLength="236.54" waitingTime="0.00" waitingCount="0" stopTime="0.00" timeLoss="5.18" rerouteNo="0" devices="tripinfo_car_straight_24" vType="type_car" speedFactor="0.85" vaporized=""/>
    <tripinfo id="bike_left_24" depart="1441.00" departLane="51o_0" departPos="1.70" departSpeed="0.00" departDelay="0.00" arrival="1529.50" arrivalLane="52i_0" arrivalPos="10.00" arrivalSpeed="2.54" duration="88.50" routeLength="218.86" waitingTime="0.00" waitingCount="0" stopTime="0.00" timeLoss="3.01" rerouteNo="0" devices="tripinfo_bike_left_24" vType="type_bike" speedFactor="0.88" vaporized=""/>
    <tripinfo id="car_straight_25" depart="1525.00" departLane="54o_0" departPos="5.10" departSpeed="0.00" departDelay="0.00" arrival="1550.50" arrivalLane="53i_0" arrivalPos="10.00" arrivalSpeed="11.92" duration="25.50" routeLength="236.54" waitingTime="0.00" waitingCount="0" stopTime="0.00" timeLoss="5.77" rerouteNo="0" devices="tripinfo_car_straight_25" vType="type_car" speedFactor="1.17" vaporized=""/>
    <tripinfo id="bike_left_25" depart="1500.00" departLane="51o_0" departPos="1.70" departSpeed="0.00" departDelay="0.00" arrival="1588.50" arrivalLane="52i_0" arrivalPos="10.00" arrivalSpeed="2.47" duration="88.50" routeLength="218.86" waitingTime="0.00" waitingCount="0" stopTime="0.00" timeLoss="2.97" rerouteNo="0" devices="tripinfo_bike_left_25" vType="type_bike" speedFactor="0.85" vaporized=""/>
    <tripinfo id="car_straight_26" depart="1584.00" departLane="54o_0" departPos="5.10" departSpeed="0.00" departDelay="0.00" arrival="1609.70" arrivalLane="53i_0" arrivalPos="10.00" arrivalSpeed="11.84" duration="25.70" routeLength="236.54" waitingTime="0.00" waitingCount="0" stopTime="0.00" timeLoss="5.93" rerouteNo="0" devices="tripinfo_car_straight_26" vType="type_car" speedFactor="1.10" vaporized=""/>
    <tripinfo id="bike_left_26" depart="1562.00" departLane="51o_0" departPos="1.70" departSpeed="0.00" departDelay="0.00" arrival="1650.60" arrivalLane="52i_0" arrivalPos="10.00" arrivalSpeed="2.52" duration="88.60" routeLength="218.86" waitingTime="0.00" waitingCount="0" stopTime="0.00" timeLoss="3.07" rerouteNo="0" devices="tripinfo_bike_left_26" vType="type_bike" speedFactor="1.02" vaporized=""/>
    <tripinfo id="car_straight_27" depart="1645.00" departLane="54o_0" departPos="5.10" departSpeed="0.00" departDelay="0.00" arrival="1671.10" arrivalLane="53i_0" arrivalPos="10.00" arrivalSpeed="12.00" duration="26.10" routeLength="236.54" waitingTime="0.00" waitingCount="0" stopTime="0.00" timeLoss="5.49" rerouteNo="0" devices="tripinfo_car_straight_27" vType="type_car" speedFactor="1.00" vaporized=""/>
    <tripinfo id="bike_left_27" depart="1620.00" departLane="51o_0" departPos="1.70" departSpeed="0.00" departDelay="0.00" arrival="1708.60" arrivalLane="52i_0" arrivalPos="10.00" arrivalSpeed="2.53" duration="88.60" routeLength="218.86" waitingTime="0.00" waitingCount="0" stopTime="0.00" timeLoss="3.06" rerouteNo="0" devices="tripinfo_bike_left_27" vType="type_bike" speedFactor="1.00" vaporized=""/>
    <tripinfo id="car_straight_28" depart="1704.00" departLane="54o_0" departPos="5.10" departSpeed="0.00" departDelay="0.00" arrival="1729.90" arrivalLane="53i_0" arrivalPos="10.00" arrivalSpeed="11.96" duration="25.90" routeLength="236.54" waitingTime="0.00" waitingCount="0" stopTime="0.00" timeLoss="6.17" rerouteNo="0" devices="tripinfo_car_straight_28" vType="type_car" speedFactor="1.14" vaporized=""/>
    <tripinfo id="bike_left_28" depart="1680.00" departLane="51o_0" departPos="1.70" departSpeed="0.00" departDelay="0.00" arrival="1768.50" arrivalLane="52i_0" arrivalPos="10.00" arrivalSpeed="2.54" duration="88.50" routeLength="218.86" waitingTime="0.00" waitingCount="0" stopTime="0.00" timeLoss="2.99" rerouteNo="0" devices="tripinfo_bike_left_28" vType="type_bike" speedFactor="0.90" vaporized=""/>
    <tripinfo id="car_straight_29" depart="1764.00" departLane="54o_0" departPos="5.10" departSpeed="0.00" departDelay="0.00" arrival="1790.80" arrivalLane="53i_0" arrivalPos="10.00" arrivalSpeed="11.79" duration="26.80" routeLength="236.54" waitingTime="0.00" waitingCount="0" stopTime="0.00" timeLoss="5.83" rerouteNo="0" devices="tripinfo_car_straight_29" vType="type_car" speedFactor="0.97" vaporized=""/>
    <tripinfo id="bike_left_29" depart="1740.00" departLane="51o_0" departPos="1.70" departSpeed="0.00" departDelay="0.00" arrival="1828.50" arrivalLane="52i_0" arrivalPos="10.00" arrivalSpeed="2.55" duration="88.50" routeLength="218.86" waitingTime="0.00" waitingCount="0" stopTime="0.00" timeLoss="2.98" rerouteNo="0" devices="tripinfo_bike_left_29" vType="type_bike" speedFactor="1.02" vaporized=""/>
    <tripinfo id="car_straight_30" depart="1824.00" departLane="54o_0" departPos="5.10" departSpeed="0.00" departDelay="0.00" arrival="1849.80" arrivalLane="53i_0" arrivalPos="10.00" arrivalSpeed="11.90" duration="25.80" routeLength="236.54" waitingTime="0.00" waitingCount="0" stopTime="0.00" timeLoss="6.01" rerouteNo="0" devices="tripinfo_car_straight_30" vType="type_car" speedFactor="1.12" vaporized=""/>
    <tripinfo id="bike_left_30" depart="1800.00" departLane="51o_0" departPos="1.70" departSpeed="0.00" departDelay="0.00" arrival="1888.60" arrivalLane="52i_0" arrivalPos="10.00" arrivalSpeed="2.48" duration="88.60" routeLength="218.86" waitingTime="0.00" waitingCount="0" stopTime="0.00" timeLoss="3.05" rerouteNo="0" devices="tripinfo_bike_left_30" vType="type_bike" speedFactor="1.08" vaporized=""/>
    <tripinfo id="car_straight_31" depart="1886.00" departLane="54o_0" departPos="5.10" departSpeed="0.00" departDelay="0.00" arrival="1912.30" arrivalLane="53i_0" arrivalPos="10.00" arrivalSpeed="11.96" duration="26.30" routeLength="236.54" waitingTime="0.00" waitingCount="0" stopTime="0.00" timeLoss="5.54" rerouteNo="0" devices="tripinfo_car_straight_31" vType="type_car" speedFactor="0.99" vaporized=""/>
    <tripinfo id="bike_left_31" depart="1860.00" departLane="51o_0" departPos="1.70" departSpeed="0.00" departDelay="0.00" arrival="1948.50" arrivalLane="52i_0" arrivalPos="10.00" arrivalSpeed="2.50" duration="88.50" routeLength="218.86" waitingTime="0.00" waitingCount="0" stopTime="0.00" timeLoss="3.00" rerouteNo="0" devices="tripinfo_bike_left_31" vType="type_bike" speedFactor="1.02" vaporized=""/>
    <tripinfo id="car_straight_32" depart="1945.00" departLane="54o_0" departPos="5.10" departSpeed="0.00" departDelay="0.00" arrival="1972.10" arrivalLane="53i_0" arrivalPos="10.00" arrivalSpeed="11.05" duration="27.10" routeLength="236.54" waitingTime="0.00" waitingCount="0" stopTime="0.00" timeLoss="5.01" rerouteNo="0" devices="tripinfo_car_straight_32" vType="type_car" speedFactor="0.88" vaporized=""/>
    <tripinfo id="bike_left_32" depart="1922.00" departLane="51o_0" departPos="1.70" departSpeed="0.00" departDelay="0.00" arrival="2010.50" arrivalLane="52i_0" arrivalPos="10.00" arrivalSpeed="2.47" duration="88.50" routeLength="218.86" waitingTime="0.00" waitingCount="0" stopTime="0.00" timeLoss="3.00" rerouteNo="0" devices="tripinfo_bike_left_32" vType="type_bike" speedFactor="0.94" vaporized=""/>
    <tripinfo id="car_straight_33" depart="2004.00" departLane="54o_0" departPos="5.10" departSpeed="0.00" departDelay="0.00" arrival="2031.00" arrivalLane="53i_0" arrivalPos="10.00" arrivalSpeed="11.09" duration="27.00" routeLength="236.54" waitingTime="0.00" waitingCount="0" stopTime="0.00" timeLoss="5.36" rerouteNo="0" devices="tripinfo_car_straight_33" vType="type_car" speedFactor="0.91" vaporized=""/>
    <tripinfo id="bike_left_33" depart="1981.00" departLane="51o_0" departPos="1.70" departSpeed="0.00" departDelay="0.00" arrival="2069.60" arrivalLane="52i_0" arrivalPos="10.00" arrivalSpeed="2.48" duration="88.60" routeLength="218.86" waitingTime="0.00" waitingCount="0" stopTime="0.00" timeLoss="3.05" rerouteNo="0" devices="tripinfo_bike_left_33" vType="type_bike" speedFactor="0.91" vaporized=""/>
    <tripinfo id="car_straight_34" depart="2066.00" departLane="54o_0" departPos="5.10" departSpeed="0.00" departDelay="0.00" arrival="2092.20" arrivalLane="53i_0" arrivalPos="10.00" arrivalSpeed="11.87" duration="26.20" routeLength="236.54" waitingTime="0.00" waitingCount="0" stopTime="0.00" timeLoss="5.85" rerouteNo="0" devices="tripinfo_car_straight_34" vType="type_car" speedFactor="1.02" vaporized=""/>
    <tripinfo id="bike_left_34" depart="2040.00" departLane="51o_0" departPos="1.70" departSpeed="0.00" departDelay="0.00" arrival="2128.60" arrivalLane="52i_0" arrivalPos="10.00" arrivalSpeed="2.48" duration="88.60" routeLength="218.86" waitingTime="0.00" waitingCount="0" stopTime="0.00" timeLoss="3.05" rerouteNo="0" devices="tripinfo_bike_left_34" vType="type_bike" speedFactor="1.04" vaporized=""/>